# Transit paramenters: rp1: 0.100 rp2: 0.090, phi: -45.000, inc: 72.000, a: 1.500, period: 3.000, t0: 0.000, u1: 0.300, u2: 0.200, ecc: 0.000, omega: 90.000
# Time 	 CatwomanFlux 	 NumericalFlux 	 BatmanFlux
0.0252525253 0.9899580175 0.9899583421 0.9899652847
0.0353535354 0.9899698892 0.9899701620 0.9899766657
0.0454545455 0.9899857172 0.9899858768 0.9899919365
0.0555555556 0.9900055098 0.9900056088 0.9900111813
