# Transit paramenters: rp1: 0.100 rp2: 0.090, phi: -45.000, inc: 72.000, a: 1.500, period: 3.000, t0: 0.000, u1: 0.300, u2: 0.200, ecc: 0.000, omega: 90.000
# Time 	 CatwomanFlux 	 NumericalFlux 	 BatmanFlux
-0.2171717172 0.9910199907 0.9910206400 0.9910581431
-0.2070707071 0.9908975886 0.9908982202 0.9909322411
-0.1969696970 0.9907868147 0.9907874185 0.9908185649
-0.1868686869 0.9906865693 0.9906870709 0.9907156100
