# Transit paramenters: rp1: 0.100 rp2: 0.090, phi: -45.000, inc: 72.000, a: 1.500, period: 3.000, t0: 0.000, u1: 0.300, u2: 0.200, ecc: 0.000, omega: 90.000
# Time 	 CatwomanFlux 	 NumericalFlux 	 BatmanFlux
-0.0959595960 0.9901150943 0.9901154625 0.9901304284
-0.0858585859 0.9900796928 0.9900800391 0.9900939575
-0.0757575758 0.9900487254 0.9900490550 0.9900620465
-0.0656565657 0.9900219913 0.9900222060 0.9900345073
