# Transit paramenters: rp1: 0.100 rp2: 0.090, phi: -45.000, inc: 89.000, a: 1.500, period: 3.000, t0: 0.000, u1: 0.300, u2: 0.200, ecc: 0.000, omega: 90.000
# Time 	 CatwomanFlux 	 NumericalFlux 	 BatmanFlux
-0.0959595960 0.9897106409 0.9897109250 0.9897157678
-0.0858585859 0.9896804249 0.9896806476 0.9896849046
-0.0757575758 0.9896540528 0.9896541905 0.9896578849
-0.0656565657 0.9896312899 0.9896313328 0.9896345570
